 vasp.6.4.3 19Mar24 (build Jun 20 2024 15:56:09) complex                         
 executed on    LinuxNV_CrayMPICH date 2025.05.15  16:25:18
 running  256 mpi-ranks, with    1 threads/rank, on    2 nodes
 distrk:  each k-point on   64 cores,    4 groups
 distr:  one band on NCORE=  32 cores,    2 groups


--------------------------------------------------------------------------------------------------------


 INCAR:
   SYSTEM = HAT-Cu
   ISTART = 0
   ICHARG = 11
   PREC = Accurate
   ADDGRID = .FALSE.
   SYMPREC = 1E-5
   ENCUT = 400
   EDIFF = 1E-6
   LREAL = Auto
   ALGO = Normal
   LWAVE = .FALSE.
   LCHARG = .FALSE.
   LORBIT = 11
   LAECHG = .FALSE.
   LVTOT = .FALSE.
   LVHAR = .FALSE.
   NEDOS = 9001
   NSW = 0
   IBRION = -1
   EDIFFG = -0.01
   ISIF = 2
   IVDW = 11
   LDIPOL = .TRUE.
   IDIPOL = 3
   ISPIN = 1
   LSORBIT = .FALSE.
   LMAXMIX = 2
   LDAU = .FALSE.
   LDAUTYPE = 2
   LDAUPRINT = 0
   ISMEAR = -5
   SIGMA = 0.05
   NCORE = 32
   KPAR = 4

 POTCAR:    PAW_PBE Cu 22Jun2005                  
 POTCAR:    PAW_PBE Ag 02Apr2005                  
 POTCAR:    PAW_PBE H 15Jun2001                   
 POTCAR:    PAW_PBE C 08Apr2002                   
 POTCAR:    PAW_PBE N 08Apr2002                   
 POTCAR:    PAW_PBE Cu 22Jun2005                  
   SHA256 =  0e71e558f37a4e8407882b4609ceaae59938afaad9ced71dfe8490308a0ab630 Cu/POTCAR             
   COPYR  = (c) Copyright 22Jun2005 Georg Kresse                                                    
   COPYR  = This file is part of the software VASP. Any use, copying, and all other rights are regul
   COPYR  = If you do not have a valid VASP license, you may not use, copy or distribute this file. 
   VRHFIN =Cu: d10 p1                                                                               
   LEXCH  = PE                                                                                      
   EATOM  =  1390.9808 eV,  102.2342 Ry                                                             
                                                                                                    
   TITEL  = PAW_PBE Cu 22Jun2005                                                                    
   LULTRA =        F    use ultrasoft PP ?                                                          
   IUNSCR =        1    unscreen: 0-lin 1-nonlin 2-no                                               
   RPACOR =    2.000    partial core radius                                                         
   POMASS =   63.546; ZVAL   =   11.000    mass and valenz                                          
   RCORE  =    2.300    outmost cutoff radius                                                       
   RWIGS  =    2.200; RWIGS  =    1.164    wigner-seitz radius (au A)                               
   ENMAX  =  295.446; ENMIN  =  221.585 eV                                                          
   ICORE  =        3    local potential                                                             
   LCOR   =        T    correct aug charges                                                         
   LPAW   =        T    paw PP                                                                      
   EAUG   =  586.980                                                                                
   DEXC   =    0.000                                                                                
   RMAX   =    2.344    core radius for proj-oper                                                   
   RAUG   =    1.300    factor for augmentation sphere                                              
   RDEP   =    2.302    radius for radial grids                                                     
   RDEPT  =    1.771    core radius for aug-charge                                                  
                                                                                                    
   Atomic configuration                                                                             
    9 entries                                                                                       
     n  l   j            E        occ.                                                              
     1  0  0.50     -8850.2468   2.0000                                                             
     2  0  0.50     -1062.3498   2.0000                                                             
     2  1  1.50      -916.8226   6.0000                                                             
     3  0  0.50      -114.6929   2.0000                                                             
     3  1  1.50       -72.1325   6.0000                                                             
     3  2  2.50        -5.0394  10.0000                                                             
     4  0  0.50        -4.6097   1.0000                                                             
     4  1  0.50        -4.0817   0.0000                                                             
     4  3  2.50        -1.3606   0.0000                                                             
   Description                                                                                      
     l       E           TYP  RCUT    TYP  RCUT                                                     
     2     -5.0393973     23  2.200                                                                 
     2     10.8846608     23  2.200                                                                 
     0     -4.6097109     23  2.200                                                                 
     0      8.2520465     23  2.200                                                                 
     1     -2.7211652     23  2.200                                                                 
     1     21.7055443     23  2.200                                                                 
     3      2.7211652     23  2.300                                                                 
  local pseudopotential read in
  partial core-charges read in
  partial kinetic energy density read in
  atomic valenz-charges read in
  non local Contribution for L=            2  read in
    real space projection operators read in
  non local Contribution for L=            2  read in
    real space projection operators read in
  non local Contribution for L=            0  read in
    real space projection operators read in
  non local Contribution for L=            0  read in
    real space projection operators read in
  non local Contribution for L=            1  read in
    real space projection operators read in
  non local Contribution for L=            1  read in
    real space projection operators read in
    PAW grid and wavefunctions read in
 
   number of l-projection  operators is LMAX  =            6
   number of lm-projection operators is LMMAX =           18
 
 POTCAR:    PAW_PBE Ag 02Apr2005                  
   SHA256 =  6550cfa3543261e132c169e1b98a529204624d72be14e2da2e0242bcb74a174d Ag/POTCAR             
   COPYR  = (c) Copyright 02Apr2005 Georg Kresse                                                    
   COPYR  = This file is part of the software VASP. Any use, copying, and all other rights are regul
   COPYR  = If you do not have a valid VASP license, you may not use, copy or distribute this file. 
   VRHFIN =Ag : s1 d10                                                                              
   LEXCH  = PE                                                                                      
   EATOM  =  1037.2675 eV,   76.2370 Ry                                                             
                                                                                                    
   TITEL  = PAW_PBE Ag 02Apr2005                                                                    
   LULTRA =        F    use ultrasoft PP ?                                                          
   IUNSCR =        1    unscreen: 0-lin 1-nonlin 2-no                                               
   RPACOR =    2.000    partial core radius                                                         
   POMASS =  107.868; ZVAL   =   11.000    mass and valenz                                          
   RCORE  =    2.500    outmost cutoff radius                                                       
   RWIGS  =    2.840; RWIGS  =    1.503    wigner-seitz radius (au A)                               
   ENMAX  =  249.844; ENMIN  =  187.383 eV                                                          
   ICORE  =        3    local potential                                                             
   LCOR   =        T    correct aug charges                                                         
   LPAW   =        T    paw PP                                                                      
   EAUG   =  412.496                                                                                
   DEXC   =    0.000                                                                                
   RMAX   =    2.560    core radius for proj-oper                                                   
   RAUG   =    1.300    factor for augmentation sphere                                              
   RDEP   =    2.576    radius for radial grids                                                     
   RDEPT  =    2.072    core radius for aug-charge                                                  
                                                                                                    
   Atomic configuration                                                                             
   12 entries                                                                                       
     n  l   j            E        occ.                                                              
     1  0  0.50    -25324.9161   2.0000                                                             
     2  0  0.50     -3728.5341   2.0000                                                             
     2  1  1.50     -3344.0404   6.0000                                                             
     3  0  0.50      -683.5581   2.0000                                                             
     3  1  1.50      -557.3225   6.0000                                                             
     3  2  2.50      -358.3853  10.0000                                                             
     4  0  0.50       -95.0341   2.0000                                                             
     4  1  1.50       -58.5511   6.0000                                                             
     4  2  2.50        -7.4440  10.0000                                                             
     5  0  0.50        -4.4045   1.0000                                                             
     5  1  0.50        -1.3606   0.0000                                                             
     4  3  2.50        -1.3606   0.0000                                                             
   Description                                                                                      
     l       E           TYP  RCUT    TYP  RCUT                                                     
     2     -7.4439781     23  2.400                                                                 
     2     -8.8045607     23  2.400                                                                 
     0     -4.4044681     23  2.400                                                                 
     0      1.9520038     23  2.400                                                                 
     1     -1.3605826     23  2.500                                                                 
     1     27.2116520     23  2.500                                                                 
     3     -4.0817478     23  2.400                                                                 
  local pseudopotential read in
  partial core-charges read in
  partial kinetic energy density read in
  atomic valenz-charges read in
  non local Contribution for L=            2  read in
    real space projection operators read in
  non local Contribution for L=            2  read in
    real space projection operators read in
  non local Contribution for L=            0  read in
    real space projection operators read in
  non local Contribution for L=            0  read in
    real space projection operators read in
  non local Contribution for L=            1  read in
    real space projection operators read in
  non local Contribution for L=            1  read in
    real space projection operators read in
    PAW grid and wavefunctions read in
 
   number of l-projection  operators is LMAX  =            6
   number of lm-projection operators is LMMAX =           18
 
 POTCAR:    PAW_PBE H 15Jun2001                   
   SHA256 =  030f79b5d3ab3cf0e668861823c8fb652ff669f3e15e46930bd03bfd63a607b6 H/POTCAR              
   COPYR  = (c) Copyright 15Jun2001 Georg Kresse                                                    
   COPYR  = This file is part of the software VASP. Any use, copying, and all other rights are regul
   COPYR  = If you do not have a valid VASP license, you may not use, copy or distribute this file. 
   VRHFIN =H: ultrasoft test                                                                        
   LEXCH  = PE                                                                                      
   EATOM  =    12.4884 eV,    0.9179 Ry                                                             
                                                                                                    
   TITEL  = PAW_PBE H 15Jun2001                                                                     
   LULTRA =        F    use ultrasoft PP ?                                                          
   IUNSCR =        0    unscreen: 0-lin 1-nonlin 2-no                                               
   RPACOR =    0.000    partial core radius                                                         
   POMASS =    1.000; ZVAL   =    1.000    mass and valenz                                          
   RCORE  =    1.100    outmost cutoff radius                                                       
   RWIGS  =    0.700; RWIGS  =    0.370    wigner-seitz radius (au A)                               
   ENMAX  =  250.000; ENMIN  =  200.000 eV                                                          
   RCLOC  =    0.701    cutoff for local pot                                                        
   LCOR   =        T    correct aug charges                                                         
   LPAW   =        T    paw PP                                                                      
   EAUG   =  400.000                                                                                
   RMAX   =    1.123    core radius for proj-oper                                                   
   RAUG   =    1.200    factor for augmentation sphere                                              
   RDEP   =    1.112    radius for radial grids                                                     
   RDEPT  =    0.926    core radius for aug-charge                                                  
                                                                                                    
   Atomic configuration                                                                             
    2 entries                                                                                       
     n  l   j            E        occ.                                                              
     1  0  0.50        -6.4927   1.0000                                                             
     2  1  0.50        -3.4015   0.0000                                                             
   Description                                                                                      
     l       E           TYP  RCUT    TYP  RCUT                                                     
     0     -6.4927494     23  1.100                                                                 
     0      6.8029130     23  1.100                                                                 
     1     -4.0817478     23  1.100                                                                 
  local pseudopotential read in
  atomic valenz-charges read in
  non local Contribution for L=            0  read in
    real space projection operators read in
  non local Contribution for L=            0  read in
    real space projection operators read in
  non local Contribution for L=            1  read in
    real space projection operators read in
    PAW grid and wavefunctions read in
 
   number of l-projection  operators is LMAX  =            3
   number of lm-projection operators is LMMAX =            5
 
 POTCAR:    PAW_PBE C 08Apr2002                   
   SHA256 =  253f7b50bb8d59471dbedb8285d89021f4a42ed1a2c5d38a03a736e69125dd95 C/POTCAR              
   COPYR  = (c) Copyright 08Apr2002 Georg Kresse                                                    
   COPYR  = This file is part of the software VASP. Any use, copying, and all other rights are regul
   COPYR  = If you do not have a valid VASP license, you may not use, copy or distribute this file. 
   VRHFIN =C: s2p2                                                                                  
   LEXCH  = PE                                                                                      
   EATOM  =   147.1560 eV,   10.8157 Ry                                                             
                                                                                                    
   TITEL  = PAW_PBE C 08Apr2002                                                                     
   LULTRA =        F    use ultrasoft PP ?                                                          
   IUNSCR =        1    unscreen: 0-lin 1-nonlin 2-no                                               
   RPACOR =    1.200    partial core radius                                                         
   POMASS =   12.011; ZVAL   =    4.000    mass and valenz                                          
   RCORE  =    1.500    outmost cutoff radius                                                       
   RWIGS  =    1.630; RWIGS  =    0.863    wigner-seitz radius (au A)                               
   ENMAX  =  400.000; ENMIN  =  300.000 eV                                                          
   ICORE  =        2    local potential                                                             
   LCOR   =        T    correct aug charges                                                         
   LPAW   =        T    paw PP                                                                      
   EAUG   =  644.873                                                                                
   DEXC   =    0.000                                                                                
   RMAX   =    1.529    core radius for proj-oper                                                   
   RAUG   =    1.300    factor for augmentation sphere                                              
   RDEP   =    1.501    radius for radial grids                                                     
   RDEPT  =    1.300    core radius for aug-charge                                                  
                                                                                                    
   Atomic configuration                                                                             
    4 entries                                                                                       
     n  l   j            E        occ.                                                              
     1  0  0.50      -273.3789   2.0000                                                             
     2  0  0.50       -13.7508   2.0000                                                             
     2  1  0.50        -5.2854   2.0000                                                             
     3  2  1.50        -5.4423   0.0000                                                             
   Description                                                                                      
     l       E           TYP  RCUT    TYP  RCUT                                                     
     0    -13.7508458     23  1.200                                                                 
     0     -8.2022199     23  1.200                                                                 
     1     -5.2854383     23  1.500                                                                 
     1     34.0145650     23  1.500                                                                 
     2     -5.4423304      7  1.500                                                                 
  local pseudopotential read in
  partial core-charges read in
  partial kinetic energy density read in
  atomic valenz-charges read in
  non local Contribution for L=            0  read in
    real space projection operators read in
  non local Contribution for L=            0  read in
    real space projection operators read in
  non local Contribution for L=            1  read in
    real space projection operators read in
  non local Contribution for L=            1  read in
    real space projection operators read in
    PAW grid and wavefunctions read in
 
   number of l-projection  operators is LMAX  =            4
   number of lm-projection operators is LMMAX =            8
 
 POTCAR:    PAW_PBE N 08Apr2002                   
   SHA256 =  e053789ff3a61a86a1b75d8a110fcc91f86041011e7b0817c7c99e4e8a6349d7 N/POTCAR              
   COPYR  = (c) Copyright 08Apr2002 Georg Kresse                                                    
   COPYR  = This file is part of the software VASP. Any use, copying, and all other rights are regul
   COPYR  = If you do not have a valid VASP license, you may not use, copy or distribute this file. 
   VRHFIN =N: s2p3                                                                                  
   LEXCH  = PE                                                                                      
   EATOM  =   264.5486 eV,   19.4438 Ry                                                             
                                                                                                    
   TITEL  = PAW_PBE N 08Apr2002                                                                     
   LULTRA =        F    use ultrasoft PP ?                                                          
   IUNSCR =        1    unscreen: 0-lin 1-nonlin 2-no                                               
   RPACOR =    1.200    partial core radius                                                         
   POMASS =   14.001; ZVAL   =    5.000    mass and valenz                                          
   RCORE  =    1.500    outmost cutoff radius                                                       
   RWIGS  =    1.400; RWIGS  =    0.741    wigner-seitz radius (au A)                               
   ENMAX  =  400.000; ENMIN  =  300.000 eV                                                          
   ICORE  =        2    local potential                                                             
   LCOR   =        T    correct aug charges                                                         
   LPAW   =        T    paw PP                                                                      
   EAUG   =  627.112                                                                                
   DEXC   =    0.000                                                                                
   RMAX   =    1.529    core radius for proj-oper                                                   
   RAUG   =    1.300    factor for augmentation sphere                                              
   RDEP   =    1.514    radius for radial grids                                                     
   RDEPT  =    1.338    core radius for aug-charge                                                  
                                                                                                    
   Atomic configuration                                                                             
    4 entries                                                                                       
     n  l   j            E        occ.                                                              
     1  0  0.50      -384.7179   2.0000                                                             
     2  0  0.50       -18.5828   2.0000                                                             
     2  1  0.50        -7.0898   3.0000                                                             
     3  2  1.50        -6.8029   0.0000                                                             
   Description                                                                                      
     l       E           TYP  RCUT    TYP  RCUT                                                     
     0    -18.5828119     23  1.200                                                                 
     0    -13.5018863     23  1.200                                                                 
     1     -7.0897853     23  1.500                                                                 
     1      9.5240782     23  1.500                                                                 
     2     -6.8029130      7  1.500                                                                 
  local pseudopotential read in
  partial core-charges read in
  partial kinetic energy density read in
  atomic valenz-charges read in
  non local Contribution for L=            0  read in
    real space projection operators read in
  non local Contribution for L=            0  read in
    real space projection operators read in
  non local Contribution for L=            1  read in
    real space projection operators read in
  non local Contribution for L=            1  read in
    real space projection operators read in
    PAW grid and wavefunctions read in
 
   number of l-projection  operators is LMAX  =            4
   number of lm-projection operators is LMMAX =            8
 
 Optimization of the real space projectors (new method)

 maximal supplied QI-value         = 16.25
 optimisation between [QCUT,QGAM] = [ 10.24, 20.48] = [ 29.35,117.42] Ry 
 Optimized for a Real-space Cutoff    1.55 Angstroem

   l    n(q)    QCUT    max X(q) W(low)/X(q) W(high)/X(q)  e(spline) 
   2      9    10.239     4.610    0.85E-04    0.29E-03    0.14E-06
   2      9    10.239     8.522    0.15E-03    0.50E-03    0.27E-06
   0     10    10.239    51.609    0.45E-04    0.99E-04    0.10E-06
   0     10    10.239    27.747    0.40E-04    0.93E-04    0.97E-07
   1      9    10.239    20.408    0.15E-03    0.78E-05    0.15E-06
   1      9    10.239    13.425    0.13E-03    0.71E-05    0.14E-06
 Optimization of the real space projectors (new method)

 maximal supplied QI-value         = 15.12
 optimisation between [QCUT,QGAM] = [ 10.13, 20.41] = [ 28.73,116.64] Ry 
 Optimized for a Real-space Cutoff    1.55 Angstroem

   l    n(q)    QCUT    max X(q) W(low)/X(q) W(high)/X(q)  e(spline) 
   2      9    10.129    53.897    0.12E-03    0.59E-04    0.12E-06
   2      9    10.129    52.416    0.12E-03    0.58E-04    0.12E-06
   0      9    10.129   122.045    0.47E-04    0.63E-05    0.83E-07
   0      9    10.129    73.629    0.43E-04    0.60E-05    0.80E-07
   1      9    10.129    15.255    0.12E-03    0.81E-05    0.12E-06
   1      9    10.129     9.562    0.10E-03    0.55E-05    0.10E-06
 Optimization of the real space projectors (new method)

 maximal supplied QI-value         = 34.20
 optimisation between [QCUT,QGAM] = [  9.92, 20.18] = [ 27.55,114.04] Ry 
 Optimized for a Real-space Cutoff    1.34 Angstroem

   l    n(q)    QCUT    max X(q) W(low)/X(q) W(high)/X(q)  e(spline) 
   0      8     9.919    19.460    0.16E-03    0.20E-03    0.36E-06
   0      8     9.919    12.209    0.16E-03    0.20E-03    0.35E-06
   1      8     9.919     4.655    0.19E-03    0.46E-03    0.40E-06
 Optimization of the real space projectors (new method)

 maximal supplied QI-value         = 25.13
 optimisation between [QCUT,QGAM] = [ 10.05, 20.36] = [ 28.30,116.06] Ry 
 Optimized for a Real-space Cutoff    1.51 Angstroem

   l    n(q)    QCUT    max X(q) W(low)/X(q) W(high)/X(q)  e(spline) 
   0      9    10.053   115.676    0.19E-03    0.21E-03    0.38E-06
   0      9    10.053    87.132    0.19E-03    0.21E-03    0.38E-06
   1      9    10.053     4.429    0.87E-04    0.11E-03    0.39E-06
   1      9    10.053     2.733    0.59E-04    0.62E-04    0.43E-06
 Optimization of the real space projectors (new method)

 maximal supplied QI-value         = 25.13
 optimisation between [QCUT,QGAM] = [ 10.05, 20.36] = [ 28.30,116.06] Ry 
 Optimized for a Real-space Cutoff    1.70 Angstroem

   l    n(q)    QCUT    max X(q) W(low)/X(q) W(high)/X(q)  e(spline) 
   0     10    10.053    79.467    0.61E-04    0.98E-04    0.61E-06
   0     10    10.053    66.151    0.60E-04    0.98E-04    0.61E-06
   1     10    10.053     8.350    0.17E-03    0.71E-03    0.45E-05
   1     10    10.053     5.531    0.18E-03    0.77E-03    0.49E-05
  PAW_PBE Cu 22Jun2005                  :
 energy of atom  1       EATOM=-1390.9808
 kinetic energy error for atom=    0.0232 (will be added to EATOM!!)
  PAW_PBE Ag 02Apr2005                  :
 energy of atom  2       EATOM=-1037.2675
 kinetic energy error for atom=    0.0091 (will be added to EATOM!!)
  PAW_PBE H 15Jun2001                   :
 energy of atom  3       EATOM=  -12.4884
 kinetic energy error for atom=    0.0098 (will be added to EATOM!!)
  PAW_PBE C 08Apr2002                   :
 energy of atom  4       EATOM= -147.1560
 kinetic energy error for atom=    0.0288 (will be added to EATOM!!)
  PAW_PBE N 08Apr2002                   :
 energy of atom  5       EATOM= -264.5486
 kinetic energy error for atom=    0.0736 (will be added to EATOM!!)
 
 
 POSCAR: Cu3 Ag125 H37 C24 N12
  positions in direct lattice
  velocities in cartesian coordinates
 IVDW         = 11
 VDW_S6       =    1.0000
 VDW_S8       =    0.7220
 VDW_SR       =    1.2170
 VDW_RADIUS   =   50.2022 A
 VDW_CNRADIUS =   21.1671 A


 exchange-correlation table for PE
   RHO(1)=    0.500       N(1)  =     2000
   RHO(2)=  100.500       N(2)  =     4000
 


--------------------------------------------------------------------------------------------------------


 ion  position               nearest neighbor table
   1  0.131  0.131  0.319- 195 2.18 197 2.18  78 3.00  74 3.01  58 3.01
   2  0.171  0.635  0.319- 193 2.03 194 2.04  76 2.82  56 3.01
   3  0.635  0.171  0.319- 198 2.03 199 2.04  68 2.82  64 3.01
   4  0.133  0.133  0.127-  29 2.86  33 2.87  49 2.87  79 2.93  80 2.93  84 2.93   5 2.93   8 2.93
                             9 2.93  13 2.93  24 2.93  25 2.93
   5  0.133  0.333  0.127-  30 2.86  29 2.87  50 2.87  80 2.93  81 2.93  85 2.93   6 2.93  26 2.93
                            25 2.93   4 2.93   9 2.93  10 2.93
   6  0.133  0.533  0.127-  30 2.85  31 2.86  51 2.87  81 2.93  82 2.93  86 2.93   5 2.93  10 2.93
                            26 2.93  27 2.93   7 2.93  11 2.93
   7  0.133  0.733  0.127-  52 2.85  31 2.86  32 2.87  82 2.93  83 2.93  87 2.93   8 2.93  28 2.93
                            27 2.93   6 2.93  11 2.93  12 2.93
   8  0.133  0.933  0.127-  53 2.86  33 2.87  32 2.87  83 2.93  88 2.93  79 2.93   7 2.93  12 2.93
                            24 2.93  28 2.93   4 2.93  13 2.93
   9  0.333  0.133  0.127-  34 2.86  29 2.87  38 2.87  84 2.93  89 2.93  85 2.93  14 2.93  18 2.93
                             4 2.93   5 2.93  10 2.93  13 2.93
  10  0.333  0.333  0.127-  30 2.86  34 2.86  35 2.88  85 2.93  86 2.93  90 2.93  11 2.93  15 2.93
                             6 2.93  14 2.93   9 2.93   5 2.93
  11  0.333  0.533  0.127-  36 2.87  31 2.87  35 2.89  86 2.93  91 2.93  87 2.93  10 2.93  15 2.93
                            16 2.93  12 2.93   7 2.93   6 2.93
  12  0.333  0.733  0.127-  37 2.86  32 2.86  36 2.88  87 2.93  88 2.93  92 2.93  13 2.93  17 2.93
                             8 2.93  16 2.93  11 2.93   7 2.93
  13  0.333  0.933  0.127-  38 2.86  33 2.86  37 2.87  88 2.93  93 2.93  84 2.93  12 2.93  17 2.93
                            18 2.93   4 2.93   8 2.93   9 2.93
  14  0.533  0.133  0.127-  34 2.85  39 2.86  43 2.87  89 2.93  90 2.93  94 2.93   9 2.93  10 2.93
                            19 2.93  23 2.93  15 2.93  18 2.93
  15  0.533  0.333  0.127-  40 2.87  39 2.87  35 2.89  90 2.93  91 2.93  95 2.93  10 2.93  11 2.93
                            16 2.93  14 2.93  19 2.93  20 2.93
  16  0.533  0.533  0.127-  41 2.86  40 2.88  36 2.88  91 2.93  92 2.93  96 2.93  11 2.93  15 2.93
                            20 2.93  12 2.93  17 2.93  21 2.93
  17  0.533  0.733  0.127-  42 2.85  37 2.87  41 2.87  92 2.93  93 2.93  97 2.93  12 2.93  13 2.93
                            18 2.93  16 2.93  21 2.93  22 2.93
  18  0.533  0.933  0.127-  42 2.86  43 2.87  38 2.89  93 2.93  89 2.93  98 2.93  13 2.93  17 2.93
                            22 2.93   9 2.93  14 2.93  23 2.93
  19  0.733  0.133  0.127-  48 2.85  39 2.86  44 2.87  94 2.93  99 2.93  95 2.93  24 2.93  28 2.93
                            14 2.93  15 2.93  20 2.93  23 2.93
  20  0.733  0.333  0.127-  45 2.86  44 2.86  40 2.88  95 2.93  96 2.93 100 2.93  21 2.93  25 2.93
                            16 2.93  24 2.93  19 2.93  15 2.93
  21  0.733  0.533  0.127-  46 2.85  45 2.87  41 2.87  96 2.93 101 2.93  97 2.93  20 2.93  25 2.93
                            26 2.93  22 2.93  17 2.93  16 2.93
  22  0.733  0.733  0.127-  47 2.84  46 2.87  42 2.87  97 2.93  98 2.93 102 2.93  23 2.93  27 2.93
                            18 2.93  26 2.93  21 2.93  17 2.93
  23  0.733  0.933  0.127-  48 2.85  47 2.85  43 2.86  98 2.93 103 2.93  94 2.93  22 2.93  27 2.93
                            28 2.93  14 2.93  18 2.93  19 2.93
  24  0.933  0.133  0.127-  53 2.86  49 2.87  44 2.87  99 2.93  79 2.93 100 2.93  19 2.93  20 2.93
                            25 2.93  28 2.93   4 2.93   8 2.93
  25  0.933  0.333  0.127-  50 2.86  49 2.86  45 2.87 100 2.93 101 2.93  80 2.93  20 2.93  21 2.93
                            26 2.93   5 2.93  24 2.93   4 2.93
  26  0.933  0.533  0.127-  46 2.86  51 2.87  50 2.89 101 2.93  81 2.93 102 2.93  21 2.93  25 2.93
                             5 2.93  22 2.93   6 2.93  27 2.93
  27  0.933  0.733  0.127-  52 2.85  47 2.85  51 2.86 102 2.93 103 2.93  82 2.93  22 2.93  23 2.93
                            28 2.93   7 2.93  26 2.93   6 2.93
  28  0.933  0.933  0.127-  48 2.86  52 2.86  53 2.87 103 2.93  99 2.93  83 2.93  23 2.93  27 2.93
                             7 2.93  19 2.93  24 2.93   8 2.93
  29  0.200  0.200  0.189-  54 2.86   4 2.86   9 2.87   5 2.87  58 2.91  74 2.91  50 2.92  38 2.92
                            33 2.93  49 2.93  34 2.95  30 2.95
  30  0.199  0.401  0.189-  54 2.84   6 2.85   5 2.86  10 2.86  75 2.87  55 2.88  31 2.93  35 2.93
                            51 2.93  50 2.93  29 2.95  34 2.95
  31  0.199  0.600  0.189-   7 2.86   6 2.86  55 2.87  11 2.87  56 2.87  52 2.91  51 2.92  32 2.93
                            36 2.93  30 2.93  76 2.93  35 2.94
  32  0.201  0.799  0.189-  77 2.86  12 2.86   7 2.87   8 2.87  57 2.88  56 2.89  37 2.92  36 2.92
                            31 2.93  33 2.93  52 2.94  53 2.94
  33  0.200  0.999  0.189-  13 2.86   8 2.87   4 2.87  78 2.88  57 2.89  58 2.91  38 2.91  53 2.92
                            29 2.93  37 2.93  32 2.93  49 2.95
  34  0.401  0.199  0.189-  54 2.84  14 2.85   9 2.86  10 2.86  63 2.87  59 2.88  39 2.93  35 2.93
                            43 2.93  38 2.93  29 2.95  30 2.95
  35  0.400  0.400  0.190-  55 2.88  59 2.88  10 2.88  11 2.89  15 2.89  60 2.89  40 2.93  36 2.93
                            34 2.93  30 2.93  39 2.94  31 2.94
  36  0.399  0.599  0.189-  11 2.87  12 2.88  16 2.88  60 2.88  61 2.88  56 2.89  32 2.92  35 2.93
                            31 2.93  40 2.93  37 2.93  41 2.94
  37  0.400  0.799  0.189-  12 2.86  17 2.87  13 2.87  57 2.87  62 2.88  61 2.90  32 2.92  42 2.93
                            41 2.93  33 2.93  38 2.93  36 2.93
  38  0.399  0.000  0.189-  63 2.84  13 2.86   9 2.87  62 2.88  18 2.89  33 2.91  58 2.91  29 2.92
                            37 2.93  34 2.93  42 2.94  43 2.96
  39  0.600  0.199  0.189-  19 2.86  14 2.86  59 2.87  15 2.87  64 2.87  48 2.91  43 2.92  44 2.93
                            40 2.93  34 2.93  68 2.93  35 2.94
  40  0.599  0.399  0.189-  15 2.87  20 2.88  16 2.88  60 2.88  65 2.88  64 2.89  44 2.92  35 2.93
                            39 2.93  36 2.93  45 2.93  41 2.94
  41  0.600  0.600  0.189-  16 2.86  17 2.87  21 2.87  61 2.90  65 2.90  66 2.90  45 2.93  37 2.93
                            46 2.93  42 2.93  36 2.94  40 2.94
  42  0.599  0.800  0.189-  17 2.85  18 2.86  22 2.87  67 2.87  62 2.88  66 2.91  37 2.93  47 2.93
                            41 2.93  46 2.93  43 2.94  38 2.94
  43  0.601  0.999  0.189-  63 2.85  23 2.86  18 2.87  14 2.87  67 2.88  48 2.91  47 2.92  68 2.92
                            39 2.92  34 2.93  42 2.94  38 2.96
  44  0.799  0.201  0.189-  73 2.86  20 2.86  19 2.87  24 2.87  69 2.88  64 2.89  45 2.92  40 2.92
                            39 2.93  49 2.93  48 2.94  53 2.94
  45  0.799  0.400  0.189-  20 2.86  21 2.87  25 2.87  69 2.87  70 2.88  65 2.90  44 2.92  46 2.93
                            41 2.93  49 2.93  50 2.93  40 2.93
  46  0.800  0.599  0.189-  21 2.85  26 2.86  22 2.87  71 2.87  70 2.88  66 2.91  45 2.93  47 2.93
                            41 2.93  42 2.93  51 2.94  50 2.94
  47  0.799  0.799  0.189-  72 2.82  22 2.84  27 2.85  23 2.85  71 2.88  67 2.88  51 2.92  43 2.92
                            46 2.93  42 2.93  52 2.95  48 2.95
  48  0.799  0.000  0.189-  72 2.84  73 2.84  23 2.85  19 2.85  28 2.86  43 2.91  39 2.91  68 2.94
                            44 2.94  47 2.95  52 2.96  53 2.96
  49  0.999  0.200  0.189-  25 2.86  24 2.87   4 2.87  78 2.88  69 2.89  74 2.91  50 2.91  53 2.92
                            29 2.93  45 2.93  44 2.93  33 2.95
  50  0.000  0.399  0.189-  75 2.84  25 2.86   5 2.87  70 2.88  26 2.89  49 2.91  74 2.91  29 2.92
                            45 2.93  30 2.93  46 2.94  51 2.96
  51  0.999  0.601  0.189-  75 2.85  27 2.86  26 2.87   6 2.87  71 2.88  52 2.91  47 2.92  76 2.92
                            31 2.92  30 2.93  46 2.94  50 2.96
  52  0.000  0.799  0.189-  72 2.84  77 2.84  27 2.85   7 2.85  28 2.86  51 2.91  31 2.91  76 2.94
                            32 2.94  47 2.95  48 2.96  53 2.96
  53  0.001  0.001  0.189-  73 2.84  77 2.84  24 2.86   8 2.86  28 2.87  78 2.89  49 2.92  33 2.92
                            44 2.94  32 2.94  48 2.96  52 2.96
  54  0.267  0.267  0.250-  30 2.84  34 2.84  29 2.86  55 2.92  59 2.92  74 2.95  58 2.95  63 2.96
                            75 2.96
  55  0.264  0.469  0.251-  31 2.87  35 2.88  30 2.88  56 2.89  76 2.90  54 2.92  75 2.94  60 2.96
                            59 3.00
  56  0.264  0.666  0.252-  31 2.87  55 2.89  36 2.89  32 2.89  76 2.90  77 2.94  60 2.94  57 2.95
                            61 2.96   2 3.01
  57  0.268  0.865  0.251-  37 2.87  32 2.88  33 2.89  61 2.92  62 2.92  58 2.94  56 2.95  78 2.95
                            77 2.96
  58  0.264  0.068  0.252-  74 2.88  78 2.89  33 2.91  29 2.91  38 2.91  57 2.94  63 2.95  54 2.95
                            62 2.96   1 3.01
  59  0.469  0.264  0.251-  39 2.87  35 2.88  34 2.88  64 2.89  68 2.90  54 2.92  63 2.94  60 2.96
                            55 3.00
  60  0.467  0.467  0.252-  36 2.88  40 2.88  35 2.89  65 2.91  61 2.91  64 2.94  56 2.94  55 2.96
                            59 2.96
  61  0.466  0.666  0.252-  36 2.88  41 2.90  37 2.90  60 2.91  57 2.92  65 2.92  66 2.93  62 2.93
                            56 2.96
  62  0.467  0.865  0.251-  37 2.88  42 2.88  38 2.88  57 2.92  66 2.92  63 2.92  67 2.92  61 2.93
                            58 2.96
  63  0.468  0.064  0.250-  38 2.84  43 2.85  34 2.87  67 2.92  62 2.92  68 2.93  59 2.94  58 2.95
                            54 2.96
  64  0.666  0.264  0.252-  39 2.87  59 2.89  40 2.89  44 2.89  68 2.90  73 2.94  60 2.94  69 2.95
                            65 2.96   3 3.01
  65  0.666  0.466  0.252-  40 2.88  41 2.90  45 2.90  60 2.91  69 2.92  61 2.92  66 2.93  70 2.93
                            64 2.96
  66  0.666  0.666  0.252-  41 2.90  42 2.91  46 2.91  70 2.92  62 2.92  67 2.92  71 2.92  65 2.93
                            61 2.93
  67  0.666  0.865  0.251-  42 2.87  43 2.88  47 2.88  71 2.91  72 2.92  63 2.92  66 2.92  62 2.92
                            68 2.95
  68  0.667  0.066  0.253-   3 2.82  59 2.90  64 2.90  43 2.92  72 2.93  73 2.93  63 2.93  39 2.93
                            48 2.94  67 2.95
  69  0.865  0.268  0.251-  45 2.87  44 2.88  49 2.89  65 2.92  70 2.92  74 2.94  64 2.95  78 2.95
                            73 2.96
  70  0.865  0.467  0.251-  45 2.88  46 2.88  50 2.88  69 2.92  66 2.92  75 2.92  71 2.92  65 2.93
                            74 2.96
  71  0.865  0.666  0.251-  46 2.87  51 2.88  47 2.88  67 2.91  72 2.92  75 2.92  66 2.92  70 2.92
                            76 2.95
  72  0.865  0.865  0.249-  47 2.82  52 2.84  48 2.84  67 2.92  71 2.92  76 2.93  68 2.93  73 2.93
                            77 2.93
  73  0.867  0.065  0.250-  53 2.84  48 2.84  44 2.86  77 2.89  68 2.93  72 2.93  64 2.94  78 2.95
                            69 2.96
  74  0.068  0.264  0.252-  58 2.88  78 2.89  49 2.91  29 2.91  50 2.91  69 2.94  75 2.95  54 2.95
                            70 2.96   1 3.01
  75  0.064  0.468  0.250-  50 2.84  51 2.85  30 2.87  71 2.92  70 2.92  76 2.93  55 2.94  74 2.95
                            54 2.96
  76  0.066  0.667  0.253-   2 2.82  55 2.90  56 2.90  51 2.92  72 2.93  77 2.93  75 2.93  31 2.93
                            52 2.94  71 2.95
  77  0.065  0.867  0.250-  53 2.84  52 2.84  32 2.86  73 2.89  76 2.93  72 2.93  56 2.94  78 2.95
                            57 2.96
  78  0.067  0.067  0.251-  33 2.88  49 2.88  53 2.89  58 2.89  74 2.89  69 2.95  57 2.95  73 2.95
                            77 2.95   1 3.00
  79  0.067  0.067  0.064-   4 2.93   8 2.93  24 2.93  88 2.93  83 2.93  84 2.93  80 2.93  99 2.93
                           100 2.93 105 2.93 109 2.93 104 2.93
  80  0.067  0.267  0.064-   5 2.93   4 2.93  25 2.93  81 2.93 101 2.93 106 2.93  85 2.93 100 2.93
                            79 2.93  84 2.93 110 2.93 105 2.93
  81  0.067  0.467  0.064-   6 2.93   5 2.93  26 2.93  80 2.93  85 2.93  82 2.93  86 2.93 101 2.93
                           102 2.93 107 2.93 111 2.93 106 2.93
  82  0.067  0.667  0.064-   7 2.93   6 2.93  27 2.93  83 2.93 103 2.93 108 2.93  87 2.93 102 2.93
                            81 2.93  86 2.93 112 2.93 107 2.93
  83  0.067  0.867  0.064-   8 2.93   7 2.93  28 2.93  82 2.93  88 2.93  87 2.93  79 2.93  99 2.93
                           103 2.93 104 2.93 113 2.93 108 2.93
  84  0.267  0.067  0.064-   9 2.93   4 2.93  13 2.93  89 2.93  93 2.93 114 2.93  79 2.93  80 2.93
                            85 2.93 110 2.93  88 2.93 109 2.93
  85  0.267  0.267  0.064-  10 2.93   9 2.93   5 2.93  86 2.93  90 2.93  81 2.93  89 2.93 111 2.93
                           115 2.93  84 2.93  80 2.93 110 2.93
  86  0.267  0.467  0.064-  11 2.93  10 2.93   6 2.93  85 2.93  90 2.93  91 2.93 116 2.93  82 2.93
                            81 2.93  87 2.93 112 2.93 111 2.93
  87  0.267  0.667  0.064-  12 2.93  88 2.93   7 2.93  11 2.93  92 2.93  83 2.93  91 2.93 113 2.93
                           117 2.93  86 2.93  82 2.93 112 2.93
  88  0.267  0.867  0.064-   8 2.93  12 2.93  13 2.93  87 2.93  83 2.93  92 2.93  79 2.93  93 2.93
                           109 2.93 113 2.93 118 2.93  84 2.93
  89  0.467  0.067  0.064-  14 2.93   9 2.93  18 2.93  84 2.93  85 2.93  90 2.93  93 2.93  94 2.93
                            98 2.93 115 2.93 119 2.93 114 2.93
  90  0.467  0.267  0.064-  15 2.93  10 2.93  14 2.93  85 2.93  86 2.93  91 2.93 116 2.93  94 2.93
                            95 2.93  89 2.93 120 2.93 115 2.93
  91  0.467  0.467  0.064-  16 2.93  15 2.93  11 2.93  86 2.93  90 2.93  95 2.93  87 2.93  92 2.93
                            96 2.93 117 2.93 121 2.93 116 2.93
  92  0.467  0.667  0.064-  17 2.93  12 2.93  16 2.93  87 2.93  93 2.93  88 2.93 118 2.93  96 2.93
                            97 2.93  91 2.93 122 2.93 117 2.93
  93  0.467  0.867  0.064-  18 2.93  17 2.93  13 2.93  92 2.93  97 2.93  84 2.93  88 2.93  89 2.93
                            98 2.93 114 2.93 123 2.93 118 2.93
  94  0.667  0.067  0.064-  19 2.93  14 2.93  23 2.93  99 2.93 103 2.93 124 2.93  98 2.93  89 2.93
                            90 2.93  95 2.93 120 2.93 119 2.93
  95  0.667  0.267  0.064-  20 2.93  19 2.93  15 2.93  96 2.93 100 2.93  91 2.93  99 2.93 121 2.93
                           125 2.93  94 2.93  90 2.93 120 2.93
  96  0.667  0.467  0.064-  21 2.93  20 2.93  16 2.93  95 2.93 100 2.93 101 2.93 126 2.93  92 2.93
                            91 2.93  97 2.93 122 2.93 121 2.93
  97  0.667  0.667  0.064-  22 2.93  21 2.93  17 2.93  98 2.93 102 2.93  93 2.93 101 2.93 123 2.93
                           127 2.93  96 2.93  92 2.93 122 2.93
  98  0.667  0.867  0.064-  23 2.93  22 2.93  18 2.93  97 2.93 102 2.93 103 2.93 128 2.93  93 2.93
                            94 2.93  89 2.93 119 2.93 123 2.93
  99  0.867  0.067  0.064-  24 2.93  19 2.93  28 2.93  94 2.93  95 2.93  79 2.93  83 2.93 100 2.93
                           103 2.93 104 2.93 125 2.93 124 2.93
 100  0.867  0.267  0.064-  25 2.93  20 2.93  24 2.93  95 2.93  96 2.93 101 2.93 126 2.93  99 2.93
                            79 2.93  80 2.93 105 2.93 125 2.93
 101  0.867  0.467  0.064-  26 2.93  25 2.93  21 2.93  96 2.93 100 2.93  80 2.93  97 2.93  81 2.93
                           102 2.93 106 2.93 127 2.93 126 2.93
 102  0.867  0.667  0.064-  27 2.93  22 2.93  26 2.93  97 2.93  98 2.93 103 2.93 128 2.93 101 2.93
                            81 2.93  82 2.93 107 2.93 127 2.93
 103  0.867  0.867  0.064-  28 2.93  27 2.93  23 2.93  98 2.93 102 2.93  82 2.93  94 2.93  99 2.93
                            83 2.93 108 2.93 124 2.93 128 2.93
 104  0.000  0.000  0.000- 153 1.87 149 1.87 133 1.87 113 2.93 124 2.93 125 2.93 105 2.93 108 2.93
                           109 2.93  99 2.93  83 2.93  79 2.93
 105  0.000  0.200  0.000- 150 1.87 149 1.88 129 1.88 106 2.93 126 2.93 104 2.93 109 2.93 110 2.93
                           125 2.93 100 2.93  79 2.93  80 2.93
 106  0.000  0.400  0.000- 151 1.87 150 1.87 130 1.87 105 2.93 110 2.93  80 2.93 127 2.93 107 2.93
                           111 2.93 126 2.93 101 2.93  81 2.93
 107  0.000  0.600  0.000- 131 1.87 151 1.87 152 1.88 108 2.93 128 2.93 106 2.93 111 2.93 112 2.93
                           127 2.93 102 2.93  81 2.93  82 2.93
 108  0.000  0.800  0.000- 132 1.88 153 1.88 152 1.88 107 2.93 112 2.93  82 2.93 128 2.93 104 2.93
                           113 2.93 124 2.93 103 2.93  83 2.93
 109  0.200  0.000  0.000- 138 1.87 133 1.88 129 1.88 114 2.93 118 2.93 105 2.93 110 2.93 113 2.93
                           104 2.93  88 2.93  79 2.93  84 2.93
 110  0.200  0.200  0.000- 130 1.88 134 1.88 129 1.88 115 2.93 111 2.93 106 2.93 114 2.93 105 2.93
                           109 2.93  84 2.93  80 2.93  85 2.93
 111  0.200  0.400  0.000- 130 1.87 135 1.88 131 1.88 110 2.93 115 2.93 116 2.93  85 2.93 112 2.93
                           107 2.93 106 2.93  81 2.93  86 2.93
 112  0.200  0.600  0.000- 132 1.87 131 1.87 136 1.87 117 2.93 113 2.93 108 2.93 116 2.93 107 2.93
                           111 2.93  86 2.93  82 2.93  87 2.93
 113  0.200  0.800  0.000- 133 1.87 137 1.87 132 1.88 112 2.93 117 2.93 118 2.93  87 2.93 104 2.93
                           108 2.93 109 2.93  88 2.93  83 2.93
 114  0.400  0.000  0.000- 143 1.87 138 1.87 134 1.87 109 2.93 110 2.93  84 2.93 123 2.93 115 2.93
                           118 2.93 119 2.93  93 2.93  89 2.93
 115  0.400  0.200  0.000- 134 1.87 135 1.88 139 1.88 110 2.93 111 2.93 116 2.93  85 2.93 114 2.93
                           119 2.93 120 2.93  89 2.93  90 2.93
 116  0.400  0.400  0.000- 140 1.87 136 1.87 135 1.88 115 2.93 111 2.93 120 2.93 112 2.93  90 2.93
                            86 2.93 121 2.93 117 2.93  91 2.93
 117  0.400  0.600  0.000- 141 1.87 136 1.88 137 1.88 112 2.93 113 2.93 118 2.93  87 2.93 116 2.93
                           121 2.93 122 2.93  91 2.93  92 2.93
 118  0.400  0.800  0.000- 138 1.87 137 1.87 142 1.88 117 2.93 113 2.93 122 2.93 109 2.93  92 2.93
                           123 2.93 114 2.93  88 2.93  93 2.93
 119  0.600  0.000  0.000- 139 1.87 143 1.87 148 1.88 124 2.93 128 2.93 115 2.93 120 2.93 123 2.93
                           114 2.93  98 2.93  89 2.93  94 2.93
 120  0.600  0.200  0.000- 144 1.87 139 1.87 140 1.87 125 2.93 121 2.93 116 2.93 124 2.93 115 2.93
                           119 2.93  94 2.93  90 2.93  95 2.93
 121  0.600  0.400  0.000- 141 1.87 140 1.88 145 1.88 120 2.93 125 2.93 126 2.93  95 2.93 122 2.93
                           117 2.93 116 2.93  91 2.93  96 2.93
 122  0.600  0.600  0.000- 142 1.87 146 1.87 141 1.87 127 2.93 123 2.93 118 2.93 126 2.93 117 2.93
                           121 2.93  96 2.93  92 2.93  97 2.93
 123  0.600  0.800  0.000- 147 1.88 142 1.88 143 1.88 122 2.93 127 2.93 128 2.93  97 2.93 114 2.93
                           118 2.93 119 2.93  93 2.93  98 2.93
 124  0.800  0.000  0.000- 144 1.88 153 1.88 148 1.88 119 2.93 120 2.93  94 2.93 128 2.93 104 2.93
                           108 2.93 125 2.93 103 2.93  99 2.93
 125  0.800  0.200  0.000- 149 1.87 145 1.87 144 1.88 120 2.93 121 2.93 126 2.93  95 2.93 105 2.93
                           124 2.93 104 2.93  99 2.93 100 2.93
 126  0.800  0.400  0.000- 150 1.87 145 1.87 146 1.88 125 2.93 121 2.93 105 2.93 122 2.93 100 2.93
                            96 2.93 127 2.93 106 2.93 101 2.93
 127  0.800  0.600  0.000- 147 1.88 146 1.88 151 1.88 122 2.93 123 2.93 128 2.93  97 2.93 107 2.93
                           126 2.93 106 2.93 101 2.93 102 2.93
 128  0.800  0.800  0.000- 147 1.87 148 1.87 152 1.87 127 2.93 123 2.93 107 2.93 119 2.93 102 2.93
                            98 2.93 108 2.93 124 2.93 103 2.93
 129  0.133  0.133  0.978- 105 1.88 109 1.88 110 1.88
 130  0.133  0.333  0.978- 106 1.87 111 1.87 110 1.88
 131  0.133  0.533  0.978- 112 1.87 107 1.87 111 1.88
 132  0.133  0.733  0.978- 112 1.87 113 1.88 108 1.88
 133  0.133  0.933  0.979- 113 1.87 104 1.87 109 1.88
 134  0.333  0.133  0.978- 114 1.87 115 1.87 110 1.88
 135  0.333  0.333  0.978- 111 1.88 115 1.88 116 1.88
 136  0.333  0.533  0.979- 116 1.87 112 1.87 117 1.88
 137  0.333  0.734  0.978- 118 1.87 113 1.87 117 1.88
 138  0.333  0.933  0.979- 114 1.87 109 1.87 118 1.87
 139  0.533  0.133  0.978- 120 1.87 119 1.87 115 1.88
 140  0.533  0.333  0.979- 116 1.87 120 1.87 121 1.88
 141  0.533  0.533  0.979- 122 1.87 121 1.87 117 1.87
 142  0.533  0.733  0.978- 122 1.87 118 1.88 123 1.88
 143  0.533  0.934  0.978- 114 1.87 119 1.87 123 1.88
 144  0.733  0.133  0.978- 120 1.87 125 1.88 124 1.88
 145  0.734  0.333  0.978- 126 1.87 125 1.87 121 1.88
 146  0.733  0.533  0.978- 122 1.87 126 1.88 127 1.88
 147  0.734  0.734  0.979- 128 1.87 127 1.88 123 1.88
 148  0.733  0.933  0.978- 128 1.87 119 1.88 124 1.88
 149  0.933  0.133  0.979- 125 1.87 104 1.87 105 1.88
 150  0.933  0.333  0.979- 106 1.87 105 1.87 126 1.87
 151  0.934  0.533  0.978- 106 1.87 107 1.87 127 1.88
 152  0.933  0.733  0.978- 128 1.87 107 1.88 108 1.88
 153  0.933  0.933  0.978- 104 1.87 108 1.88 124 1.88
 154  0.709  0.878  0.334- 187 1.09
 155  0.395  0.561  0.331- 166 1.09
 156  0.561  0.395  0.331- 167 1.09
 157  0.878  0.709  0.334- 184 1.09
 158  0.712  0.323  0.326- 168 1.09
 159  0.560  0.949  0.329- 171 1.09
 160  0.879  0.321  0.329- 172 1.09
 161  0.393  0.948  0.329- 175 1.09
 162  0.949  0.560  0.329- 183 1.09
 163  0.321  0.879  0.329- 176 1.09
 164  0.948  0.393  0.329- 179 1.09
 165  0.323  0.712  0.326- 180 1.09
 166  0.393  0.487  0.331- 155 1.09 193 1.37 167 1.38
 167  0.487  0.393  0.331- 156 1.09 198 1.37 166 1.38
 168  0.784  0.248  0.329- 158 1.09 199 1.36 172 1.39
 169  0.398  0.301  0.334- 198 1.38 189 1.42 173 1.45
 170  0.968  0.067  0.334- 197 1.37 177 1.42 174 1.44
 171  0.486  0.024  0.331- 159 1.09 196 1.34 175 1.40
 172  0.880  0.246  0.329- 160 1.09 197 1.36 168 1.39
 173  0.397  0.203  0.335- 196 1.36 178 1.43 169 1.45
 174  0.067  0.968  0.334- 195 1.37 188 1.42 170 1.44
 175  0.391  0.023  0.331- 161 1.09 201 1.35 171 1.40
 176  0.246  0.880  0.329- 163 1.09 195 1.36 180 1.39
 177  0.871  0.068  0.333- 199 1.38 170 1.42 186 1.44
 178  0.300  0.203  0.334- 201 1.37 173 1.43 181 1.43
 179  0.023  0.391  0.331- 164 1.09 200 1.35 183 1.40
 180  0.248  0.784  0.329- 165 1.09 194 1.36 176 1.39
 181  0.203  0.300  0.334- 200 1.37 185 1.43 178 1.43
 182  0.969  0.872  0.334- 192 1.36 186 1.43 188 1.44
 183  0.024  0.486  0.331- 162 1.09 191 1.34 179 1.40
 184  0.879  0.783  0.334- 157 1.09 192 1.34 187 1.40
 185  0.203  0.397  0.335- 191 1.36 181 1.43 189 1.45
 186  0.872  0.969  0.334- 190 1.36 182 1.43 177 1.44
 187  0.783  0.879  0.334- 154 1.09 190 1.34 184 1.40
 188  0.068  0.871  0.333- 194 1.38 174 1.42 182 1.44
 189  0.301  0.398  0.334- 193 1.38 169 1.42 185 1.45
 190  0.778  0.973  0.334- 187 1.34 186 1.36
 191  0.113  0.492  0.333- 183 1.34 185 1.36
 192  0.973  0.778  0.334- 184 1.34 182 1.36
 193  0.297  0.494  0.332- 166 1.37 189 1.38   2 2.03
 194  0.160  0.776  0.331- 180 1.36 188 1.38   2 2.04
 195  0.157  0.975  0.332- 176 1.36 174 1.37   1 2.18
 196  0.492  0.113  0.333- 171 1.34 173 1.36
 197  0.975  0.157  0.332- 172 1.36 170 1.37   1 2.18
 198  0.494  0.297  0.332- 167 1.37 169 1.38   3 2.03
 199  0.776  0.160  0.331- 168 1.36 177 1.38   3 2.04
 200  0.111  0.297  0.333- 179 1.35 181 1.37
 201  0.297  0.111  0.333- 175 1.35 178 1.37
 
  LATTYP: Found a hexagonal cell.
 ALAT       =    14.6550000000
 C/A-ratio  =     2.5616808616
  
  Lattice vectors:
  
 A1 = (  -7.3275000000, -12.6916022925,   0.0000000000)
 A2 = (  14.6550000000,   0.0000000000,   0.0000000000)
 A3 = (   0.0000000000,   0.0000000000,  37.5414330263)


Analysis of symmetry for initial positions (statically):
=====================================================================
 Subroutine PRICEL returns:
 Original cell was already a primitive cell.
 

 Routine SETGRP: Setting up the symmetry group for a 
 hexagonal supercell.


 Subroutine GETGRP returns: Found  2 space group operations
 (whereof  2 operations were pure point group operations)
 out of a pool of 24 trial point group operations.


The static configuration has the point symmetry C_1h.


Analysis of symmetry for dynamics (positions and initial velocities):
=====================================================================
 Subroutine PRICEL returns:
 Original cell was already a primitive cell.
 

 Routine SETGRP: Setting up the symmetry group for a 
 hexagonal supercell.


 Subroutine GETGRP returns: Found  2 space group operations
 (whereof  2 operations were pure point group operations)
 out of a pool of 24 trial point group operations.


The dynamic configuration has the point symmetry C_1h.


Analysis of constrained symmetry for selective dynamics:
=====================================================================
 Subroutine PRICEL returns:
 Original cell was already a primitive cell.
 

 Routine SETGRP: Setting up the symmetry group for a 
 hexagonal supercell.


 Subroutine GETGRP returns: Found  2 space group operations
 (whereof  2 operations were pure point group operations)
 out of a pool of 24 trial point group operations.


The constrained configuration has the point symmetry C_1h.


 Subroutine INISYM returns: Found  2 space group operations
 (whereof  2 operations are pure point group operations),
 and found     1 'primitive' translations


----------------------------------------------------------------------------------------

                                     Primitive cell                                     

  volume of cell :    6982.5350

  direct lattice vectors                    reciprocal lattice vectors
    14.655000000  0.000000000  0.000000000     0.068236097 -0.039396129  0.000000000
     7.327500000 12.691602292  0.000000000     0.000000000  0.078792258  0.000000000
     0.000000000  0.000000000 37.541433026     0.000000000  0.000000000  0.026637236

  length of vectors
    14.655000000 14.655000000 37.541433026     0.078792258  0.078792258  0.026637236

  position of ions in fractional coordinates (direct lattice)
     0.130709545  0.130709545  0.318528884
     0.170732791  0.634719545  0.318531967
     0.634719545  0.170732791  0.318531967
     0.133333333  0.133333333  0.127493880
     0.133333333  0.333333333  0.127493880
     0.133333333  0.533333333  0.127493880
     0.133333333  0.733333333  0.127493880
     0.133333333  0.933333333  0.127493880
     0.333333333  0.133333333  0.127493880
     0.333333333  0.333333333  0.127493880
     0.333333333  0.533333333  0.127493880
     0.333333333  0.733333333  0.127493880
     0.333333333  0.933333333  0.127493880
     0.533333333  0.133333333  0.127493880
     0.533333333  0.333333333  0.127493880
     0.533333333  0.533333333  0.127493880
     0.533333333  0.733333333  0.127493880
     0.533333333  0.933333333  0.127493880
     0.733333333  0.133333333  0.127493880
     0.733333333  0.333333333  0.127493880
     0.733333333  0.533333333  0.127493880
     0.733333333  0.733333333  0.127493880
     0.733333333  0.933333333  0.127493880
     0.933333333  0.133333333  0.127493880
     0.933333333  0.333333333  0.127493880
     0.933333333  0.533333333  0.127493880
     0.933333333  0.733333333  0.127493880
     0.933333333  0.933333333  0.127493880
     0.199546001  0.199546001  0.189067596
     0.199186085  0.400739690  0.188849714
     0.199107468  0.600473696  0.189030333
     0.200714040  0.799302555  0.189090997
     0.200397067  0.999397763  0.189157942
     0.400739690  0.199186085  0.188849714
     0.399590003  0.399590003  0.189695590
     0.399309601  0.599371836  0.189475451
     0.399897141  0.799311273  0.189099700
     0.398500264  0.000082375  0.189389429
     0.600473696  0.199107468  0.189030333
     0.599371836  0.399309601  0.189475451
     0.599589779  0.599589779  0.189136567
     0.599379344  0.799527884  0.188925018
     0.600885118  0.999486713  0.189190638
     0.799302555  0.200714040  0.189090997
     0.799311273  0.399897141  0.189099700
     0.799527884  0.599379344  0.188925018
     0.799157451  0.799157451  0.188518519
     0.798689146  0.000493907  0.188639073
     0.999397763  0.200397067  0.189157942
     0.000082375  0.398500264  0.189389429
     0.999486713  0.600885118  0.189190638
     0.000493907  0.798689146  0.188639073
     0.000592033  0.000592033  0.188892036
     0.267491873  0.267491873  0.249674489
     0.263904921  0.468814193  0.251021540
     0.264278924  0.665830124  0.251574823
     0.267617501  0.865184156  0.251184661
     0.264417539  0.067621116  0.252327984
     0.468814193  0.263904921  0.251021540
     0.466753641  0.466753641  0.251860025
     0.466185970  0.665746994  0.251733048
     0.466685167  0.865297658  0.251172003
     0.467523814  0.064249217  0.250216114
     0.665830124  0.264278924  0.251574823
     0.665746994  0.466185970  0.251733048
     0.665814300  0.665814300  0.251994786
     0.666476829  0.864842978  0.250904221
     0.666670895  0.065890176  0.252890383
     0.865184156  0.267617501  0.251184661
     0.865297658  0.466685167  0.251172003
     0.864842978  0.666476829  0.250904221
     0.865303375  0.865303375  0.248858458
     0.867124984  0.064597764  0.249641132
     0.067621116  0.264417539  0.252327984
     0.064249217  0.467523814  0.250216114
     0.065890176  0.666670895  0.252890383
     0.064597764  0.867124984  0.249641132
     0.067283201  0.067283201  0.251248508
     0.066666667  0.066666667  0.063746940
     0.066666667  0.266666667  0.063746940
     0.066666667  0.466666667  0.063746940
     0.066666667  0.666666667  0.063746940
     0.066666667  0.866666667  0.063746940
     0.266666667  0.066666667  0.063746940
     0.266666667  0.266666667  0.063746940
     0.266666667  0.466666667  0.063746940
     0.266666667  0.666666667  0.063746940
     0.266666667  0.866666667  0.063746940
     0.466666667  0.066666667  0.063746940
     0.466666667  0.266666667  0.063746940
     0.466666667  0.466666667  0.063746940
     0.466666667  0.666666667  0.063746940
     0.466666667  0.866666667  0.063746940
     0.666666667  0.066666667  0.063746940
     0.666666667  0.266666667  0.063746940
     0.666666667  0.466666667  0.063746940
     0.666666667  0.666666667  0.063746940
     0.666666667  0.866666667  0.063746940
     0.866666667  0.066666667  0.063746940
     0.866666667  0.266666667  0.063746940
     0.866666667  0.466666667  0.063746940
     0.866666667  0.666666667  0.063746940
     0.866666667  0.866666667  0.063746940
     0.000000000  0.000000000  0.000000000
     0.000000000  0.200000000  0.000000000
     0.000000000  0.400000000  0.000000000
     0.000000000  0.600000000  0.000000000
     0.000000000  0.800000000  0.000000000
     0.200000000  0.000000000  0.000000000
     0.200000000  0.200000000  0.000000000
     0.200000000  0.400000000  0.000000000
     0.200000000  0.600000000  0.000000000
     0.200000000  0.800000000  0.000000000
     0.400000000  0.000000000  0.000000000
     0.400000000  0.200000000  0.000000000
     0.400000000  0.400000000  0.000000000
     0.400000000  0.600000000  0.000000000
     0.400000000  0.800000000  0.000000000
     0.600000000  0.000000000  0.000000000
     0.600000000  0.200000000  0.000000000
     0.600000000  0.400000000  0.000000000
     0.600000000  0.600000000  0.000000000
     0.600000000  0.800000000  0.000000000
     0.800000000  0.000000000  0.000000000
     0.800000000  0.200000000  0.000000000
     0.800000000  0.400000000  0.000000000
     0.800000000  0.600000000  0.000000000
     0.800000000  0.800000000  0.000000000
     0.133330045  0.133330045  0.978249556
     0.133292743  0.333384482  0.978492114
     0.133305505  0.533456169  0.978476399
     0.133445867  0.733151737  0.978444032
     0.133324613  0.933234887  0.978517895
     0.333384482  0.133292743  0.978492114
     0.333307674  0.333307674  0.978385645
     0.333355085  0.533200924  0.978509377
     0.333193066  0.733614743  0.978411851
     0.333327126  0.933349767  0.978553244
     0.533456169  0.133305505  0.978476399
     0.533200924  0.333355085  0.978509377
     0.533359767  0.533359767  0.978527946
     0.533485024  0.732996300  0.978464628
     0.533052869  0.933630785  0.978479974
     0.733151737  0.133445867  0.978444032
     0.733614743  0.333193066  0.978411851
     0.732996300  0.533485024  0.978464628
     0.733506906  0.733506906  0.978573203
     0.733419966  0.933037750  0.978435495
     0.933234887  0.133324613  0.978517895
     0.933349767  0.333327126  0.978553244
     0.933630785  0.533052869  0.978479974
     0.933037750  0.733419966  0.978435495
     0.933496241  0.933496241  0.978456088
     0.708890441  0.878008858  0.333569287
     0.394544764  0.560812752  0.331233786
     0.560812752  0.394544764  0.331233786
     0.878008858  0.708890441  0.333569287
     0.711880569  0.323460697  0.326457440
     0.560377014  0.949375150  0.328902486
     0.879056286  0.321024449  0.328765094
     0.393316637  0.948061975  0.329052723
     0.949375150  0.560377014  0.328902486
     0.321024449  0.879056286  0.328765094
     0.948061975  0.393316637  0.329052723
     0.323460697  0.711880569  0.326457440
     0.393146952  0.487279021  0.331433546
     0.487279021  0.393146952  0.331433546
     0.784444480  0.247880996  0.328509930
     0.398156311  0.301264438  0.334187019
     0.968446015  0.066913720  0.333537406
     0.486493033  0.024047686  0.330560529
     0.879977093  0.246390124  0.329232888
     0.397465315  0.202994931  0.334502714
     0.066913720  0.968446015  0.333537406
     0.391376806  0.023195010  0.330587715
     0.246390124  0.879977093  0.329232888
     0.871115510  0.067823333  0.333052840
     0.300398465  0.202518867  0.333949996
     0.023195010  0.391376806  0.330587715
     0.247880996  0.784444480  0.328509930
     0.202518867  0.300398465  0.333949996
     0.969321517  0.871843999  0.334448305
     0.024047686  0.486493033  0.330560529
     0.878690662  0.782964699  0.333812614
     0.202994931  0.397465315  0.334502714
     0.871843999  0.969321517  0.334448305
     0.782964699  0.878690662  0.333812614
     0.067823333  0.871115510  0.333052840
     0.301264438  0.398156311  0.334187019
     0.777679017  0.972576123  0.334350312
     0.112542076  0.491994273  0.333406927
     0.972576123  0.777679017  0.334350312
     0.296734987  0.494146096  0.332220476
     0.159938858  0.775724912  0.330790604
     0.156886766  0.974909147  0.332321107
     0.491994273  0.112542076  0.333406927
     0.974909147  0.156886766  0.332321107
     0.494146096  0.296734987  0.332220476
     0.775724912  0.159938858  0.330790604
     0.111332062  0.296586903  0.332729150
     0.296586903  0.111332062  0.332729150

  ion indices of the primitive-cell ions
   primitive index   ion index
                 1           1
                 2           2
                 3           3
                 4           4
                 5           5
                 6           6
                 7           7
                 8           8
                 9           9
                10          10
                11          11
                12          12
                13          13
                14          14
                15          15
                16          16
                17          17
                18          18
                19          19
                20          20
                21          21
                22          22
                23          23
                24          24
                25          25
                26          26
                27          27
                28          28
                29          29
                30          30
                31          31
                32          32
                33          33
                34          34
                35          35
                36          36
                37          37
                38          38
                39          39
                40          40
                41          41
                42          42
                43          43
                44          44
                45          45
                46          46
                47          47
                48          48
                49          49
                50          50
                51          51
                52          52
                53          53
                54          54
                55          55
                56          56
                57          57
                58          58
                59          59
                60          60
                61          61
                62          62
                63          63
                64          64
                65          65
                66          66
                67          67
                68          68
                69          69
                70          70
                71          71
                72          72
                73          73
                74          74
                75          75
                76          76
                77          77
                78          78
                79          79
                80          80
                81          81
                82          82
                83          83
                84          84
                85          85
                86          86
                87          87
                88          88
                89          89
                90          90
                91          91
                92          92
                93          93
                94          94
                95          95
                96          96
                97          97
                98          98
                99          99
               100         100
               101         101
               102         102
               103         103
               104         104
               105         105
               106         106
               107         107
               108         108
               109         109
               110         110
               111         111
               112         112
               113         113
               114         114
               115         115
               116         116
               117         117
               118         118
               119         119
               120         120
               121         121
               122         122
               123         123
               124         124
               125         125
               126         126
               127         127
               128         128
               129         129
               130         130
               131         131
               132         132
               133         133
               134         134
               135         135
               136         136
               137         137
               138         138
               139         139
               140         140
               141         141
               142         142
               143         143
               144         144
               145         145
               146         146
               147         147
               148         148
               149         149
               150         150
               151         151
               152         152
               153         153
               154         154
               155         155
               156         156
               157         157
               158         158
               159         159
               160         160
               161         161
               162         162
               163         163
               164         164
               165         165
               166         166
               167         167
               168         168
               169         169
               170         170
               171         171
               172         172
               173         173
               174         174
               175         175
               176         176
               177         177
               178         178
               179         179
               180         180
               181         181
               182         182
               183         183
               184         184
               185         185
               186         186
               187         187
               188         188
               189         189
               190         190
               191         191
               192         192
               193         193
               194         194
               195         195
               196         196
               197         197
               198         198
               199         199
               200         200
               201         201

----------------------------------------------------------------------------------------

 
 
 KPOINTS: K-Points                                

Automatic generation of k-mesh.
 Grid dimensions read from file:
 generate k-points for:   15   15    1

 Generating k-lattice:

  Cartesian coordinates                     Fractional coordinates (reciprocal lattice)
     0.004549073 -0.002626409  0.000000000     0.066666667  0.000000000  0.000000000
     0.000000000  0.005252817  0.000000000     0.000000000  0.066666667  0.000000000
     0.000000000  0.000000000  0.026637236     0.000000000  0.000000000  1.000000000

  Length of vectors
     0.005252817  0.005252817  0.026637236

  Shift w.r.t. Gamma in fractional coordinates (k-lattice)
     0.000000000  0.000000000  0.000000000

 TETIRR: Found    344 inequivalent tetrahedra from     1350
 
 Subroutine IBZKPT returns following result:
 ===========================================
 
 Found     64 irreducible k-points:
 
 Following reciprocal coordinates:
            Coordinates               Weight
  0.000000  0.000000  0.000000      1.000000
  0.066667  0.000000  0.000000      4.000000
  0.066667  0.066667  0.000000      2.000000
  0.133333  0.000000  0.000000      4.000000
  0.133333  0.133333  0.000000      2.000000
  0.200000  0.000000  0.000000      4.000000
  0.200000  0.200000  0.000000      2.000000
  0.266667  0.000000  0.000000      4.000000
  0.266667  0.266667  0.000000      2.000000
  0.333333  0.000000  0.000000      4.000000
  0.333333  0.333333  0.000000      2.000000
  0.400000  0.000000  0.000000      4.000000
  0.400000  0.400000  0.000000      2.000000
  0.466667  0.000000  0.000000      4.000000
  0.466667  0.466667  0.000000      2.000000
  0.133333  0.066667  0.000000      4.000000
 -0.066667  0.066667  0.000000      2.000000
  0.200000  0.066667  0.000000      4.000000
  0.133333  0.200000  0.000000      4.000000
 -0.066667  0.133333  0.000000      4.000000
  0.266667  0.066667  0.000000      4.000000
  0.200000  0.266667  0.000000      4.000000
 -0.066667  0.200000  0.000000      4.000000
  0.333333  0.066667  0.000000      4.000000
  0.266667  0.333333  0.000000      4.000000
 -0.066667  0.266667  0.000000      4.000000
  0.400000  0.066667  0.000000      4.000000
  0.333333  0.400000  0.000000      4.000000
 -0.066667  0.333333  0.000000      4.000000
  0.466667  0.066667  0.000000      4.000000
  0.400000  0.466667  0.000000      4.000000
 -0.066667  0.400000  0.000000      4.000000
 -0.466667  0.066667  0.000000      4.000000
  0.466667 -0.466667  0.000000      2.000000
  0.266667  0.133333  0.000000      4.000000
 -0.133333  0.133333  0.000000      2.000000
  0.333333  0.133333  0.000000      4.000000
  0.200000  0.333333  0.000000      4.000000
 -0.133333  0.200000  0.000000      4.000000
  0.400000  0.133333  0.000000      4.000000
  0.266667  0.400000  0.000000      4.000000
 -0.133333  0.266667  0.000000      4.000000
  0.466667  0.133333  0.000000      4.000000
  0.333333  0.466667  0.000000      4.000000
 -0.133333  0.333333  0.000000      4.000000
 -0.466667  0.133333  0.000000      4.000000
  0.400000 -0.466667  0.000000      4.000000
 -0.133333  0.400000  0.000000      4.000000
  0.400000  0.200000  0.000000      4.000000
 -0.200000  0.200000  0.000000      2.000000
  0.466667  0.200000  0.000000      4.000000
  0.266667  0.466667  0.000000      4.000000
 -0.200000  0.266667  0.000000      4.000000
 -0.466667  0.200000  0.000000      4.000000
  0.333333 -0.466667  0.000000      4.000000
 -0.200000  0.333333  0.000000      4.000000
 -0.400000  0.200000  0.000000      4.000000
  0.400000 -0.400000  0.000000      2.000000
 -0.466667  0.266667  0.000000      4.000000
 -0.266667  0.266667  0.000000      2.000000
 -0.400000  0.266667  0.000000      4.000000
  0.333333 -0.400000  0.000000      4.000000
 -0.266667  0.333333  0.000000      4.000000
 -0.333333  0.333333  0.000000      2.000000
 
 Following cartesian coordinates:
            Coordinates               Weight
  0.000000  0.000000  0.000000      1.000000
  0.004549 -0.002626  0.000000      4.000000
  0.004549  0.002626  0.000000      2.000000
  0.009098 -0.005253  0.000000      4.000000
  0.009098  0.005253  0.000000      2.000000
  0.013647 -0.007879  0.000000      4.000000
  0.013647  0.007879  0.000000      2.000000
  0.018196 -0.010506  0.000000      4.000000
  0.018196  0.010506  0.000000      2.000000
  0.022745 -0.013132  0.000000      4.000000
  0.022745  0.013132  0.000000      2.000000
  0.027294 -0.015758  0.000000      4.000000
  0.027294  0.015758  0.000000      2.000000
  0.031844 -0.018385  0.000000      4.000000
  0.031844  0.018385  0.000000      2.000000
  0.009098  0.000000  0.000000      4.000000
 -0.004549  0.007879  0.000000      2.000000
  0.013647 -0.002626  0.000000      4.000000
  0.009098  0.010506  0.000000      4.000000
 -0.004549  0.013132  0.000000      4.000000
  0.018196 -0.005253  0.000000      4.000000
  0.013647  0.013132  0.000000      4.000000
 -0.004549  0.018385  0.000000      4.000000
  0.022745 -0.007879  0.000000      4.000000
  0.018196  0.015758  0.000000      4.000000
 -0.004549  0.023638  0.000000      4.000000
  0.027294 -0.010506  0.000000      4.000000
  0.022745  0.018385  0.000000      4.000000
 -0.004549  0.028890  0.000000      4.000000
  0.031844 -0.013132  0.000000      4.000000
  0.027294  0.021011  0.000000      4.000000
 -0.004549  0.034143  0.000000      4.000000
 -0.031844  0.023638  0.000000      4.000000
  0.031844 -0.055155  0.000000      2.000000
  0.018196  0.000000  0.000000      4.000000
 -0.009098  0.015758  0.000000      2.000000
  0.022745 -0.002626  0.000000      4.000000
  0.013647  0.018385  0.000000      4.000000
 -0.009098  0.021011  0.000000      4.000000
  0.027294 -0.005253  0.000000      4.000000
  0.018196  0.021011  0.000000      4.000000
 -0.009098  0.026264  0.000000      4.000000
  0.031844 -0.007879  0.000000      4.000000
  0.022745  0.023638  0.000000      4.000000
 -0.009098  0.031517  0.000000      4.000000
 -0.031844  0.028890  0.000000      4.000000
  0.027294 -0.052528  0.000000      4.000000
 -0.009098  0.036770  0.000000      4.000000
  0.027294  0.000000  0.000000      4.000000
 -0.013647  0.023638  0.000000      2.000000
  0.031844 -0.002626  0.000000      4.000000
  0.018196  0.026264  0.000000      4.000000
 -0.013647  0.028890  0.000000      4.000000
 -0.031844  0.034143  0.000000      4.000000
  0.022745 -0.049902  0.000000      4.000000
 -0.013647  0.034143  0.000000      4.000000
 -0.027294  0.031517  0.000000      4.000000
  0.027294 -0.047275  0.000000      2.000000
 -0.031844  0.039396  0.000000      4.000000
 -0.018196  0.031517  0.000000      2.000000
 -0.027294  0.036770  0.000000      4.000000
  0.022745 -0.044649  0.000000      4.000000
 -0.018196  0.036770  0.000000      4.000000
 -0.022745  0.039396  0.000000      2.000000
 


--------------------------------------------------------------------------------------------------------




 Dimension of arrays:
   k-points           NKPTS =     64   k-points in BZ     NKDIM =     64   number of bands    NBANDS=    960
   number of dos      NEDOS =   9001   number of ions     NIONS =    201
   non local maximal  LDIM  =      6   non local SUM 2l+1 LMDIM =     18
   total plane-waves  NPLWV = ******
   max r-space proj   IRMAX =   6815   max aug-charges    IRDMAX=  16422
   dimension x,y,z NGX =    96 NGY =   96 NGZ =  250
   dimension x,y,z NGXF=   192 NGYF=  192 NGZF=  500
   support grid    NGXF=   192 NGYF=  192 NGZF=  500
   ions per type =               3 125  37  24  12
   NGX,Y,Z   is equivalent  to a cutoff of  10.89, 10.89, 11.07 a.u.
   NGXF,Y,Z  is equivalent  to a cutoff of  21.78, 21.78, 22.14 a.u.

 SYSTEM =  HAT-Cu                                  
 POSCAR =  Cu3 Ag125 H37 C24 N12                   

 Startparameter for this run:
[...]
  289              crrexp_mul_wave                      19.630113                8432640   6
  290              rpromu_gemm                          24.508107                2108160   6
  291              m_sumb_d                             21.083620                  69120   6
  292          m_sumb_d                              8.302398                         10   4
  293        m_sumb_d                              0.000024                            1   3
  294        potxc                                 0.211881                            1   3
  295          fft3d_mpi                             0.111126                         11   4
  296            fftbrc_mpi                            0.108644                       11   5
  297              fftbas_plan_mpi                       0.108638                     11   6
  298                dfftw_execute                         0.024563                   33   7
  299                map_forward                           0.040184                   10   7
  300                  map_gather                            0.006659                  5   8
  301                  m_alltoallv_z                         0.029312                  5   8
  302                  map_scatter                           0.004148                  5   8
  303                map_backward                          0.043351                   12   7
  304                  map_gather                            0.007659                  6   8
  305                  m_alltoallv_z                         0.026872                  6   8
  306                  map_scatter                           0.008733                  6   8
  307          m_sumb_d                              0.000432                          5   4
  308          m_max_i                               0.000036                          1   4
  309        forhar                                0.194082                            2   3
  310          m_sumb_d                              0.000635                          2   4
  311        strehar                               0.021246                            1   3
  312          m_sumb_d                              0.001318                          1   4
  313        chggra                                0.051441                            1   3
  314          fft3d_mpi                             0.027828                          3   4
  315            fftbrc_mpi                            0.027434                        3   5
  316              fftbas_plan_mpi                       0.027430                      3   6
  317                dfftw_execute                         0.007009                    9   7
  318                map_backward                          0.005729                    2   7
  319                  map_gather                            0.001150                  1   8
  320                  m_alltoallv_z                         0.003443                  1   8
  321                  map_scatter                           0.001127                  1   8
  322                map_forward                           0.014595                    4   7
  323                  map_gather                            0.004009                  2   8
  324                  m_alltoallv_z                         0.008375                  2   8
  325                  map_scatter                           0.002186                  2   8
  326          m_max_i                               0.001970                          1   4
  327          m_sumb_d                              0.000029                          2   4
  328          pothar                                0.005313                          1   4
  329            m_sumb_d                              0.002294                        1   5
  330        m_bcast_d                             0.159572                            2   3
  331      potlok                                0.234443                              1   2
  332        fft3d_mpi                             0.112458                           13   3
  333          fftbrc_mpi                            0.109390                         13   4
  334            fftbas_plan_mpi                       0.109375                       13   5
  335              dfftw_execute                         0.031652                     39   6
  336              map_forward                           0.042675                     14   6
  337                map_gather                            0.014076                    8   7
  338                m_alltoallv_z                         0.024636                    8   7
  339                map_scatter                           0.003884                    8   7
  340              map_backward                          0.034704                     12   6
  341                map_gather                            0.008613                    6   7
  342                m_alltoallv_z                         0.019469                    6   7
  343                map_scatter                           0.006546                    6   7
  344        m_sumb_d                              0.000829                            8   3
  345        m_max_i                               0.000013                            1   3
  346        fewald                                0.000340                            2   3
  347          rsp                                   0.000280                          2   4
  348          rcp                                   0.000050                          2   4
  349        pothar                                0.004909                            1   3
  350          m_sumb_d                              0.000695                          1   4
  351        m_bcast_d                             0.000378                            1   3
  352      set_dd_magatom                        0.000000                              1   2
  353      set_dd_paw                            0.007747                              1   2
  354        set_rsgf_all                          0.000001                            1   3
  355        m_sumb_d                              0.007709                            8   3
  356      densta                                2.378199                              1   2
  357        m_bcast_z                             0.000182                            1   3
  358        m_alltoall_d                          1.473126                           20   3
  359        m_sumb_d                              0.063088                           49   3
  360      m_alltoall_d                          1.345598                             16   2
 
 Flat profile
 ============
 
             routine name                   CPU           calls
 ---------------------------------------------------------------
 ggemm                                1337.201530       87319
 m_bcast_z                            1236.050082      160304
 orth1                                1207.816716      204837
 dfftw_execute                         675.935661     2540790
 m_alltoallv_z                         405.664937      846933
 vhamil                                291.020033      272476
 m_alltoall_d                          284.008052     2123596
 m_sumb_d                              234.939294     1407547
 fftwav_mpi                            226.328871      574409
 wfinit                                214.696747           1
 crrexp_mul_work_add                   133.302976    33242072
 gemm                                  125.566490     8310518
 rpromu_gemm                           118.860770     9013238
 crrexp_mul_wave                       101.547983    36052952
 total_time                            101.527676           1
 lincom                                 85.603229         176
 eddav                                  64.244884          10
 map_gather                             45.462376      846933
 map_scatter                            42.547739      846933
 map_forward                            40.747438     1148864
 pdssyex_zheevx                         28.958404         160
 rpromu                                 22.979945       73879
 lapack                                 21.445817       68119
 racc0mu                                21.307382       68119
 w1_copy                                20.212403      817428
 sphpro_fast                            17.442936           2
 eccp                                   16.923834       76800
 fftbas_plan_mpi                        12.512026      846930
 redis_pw                                7.280442      740980
 kinhamil                                6.798737      272476
 apply_precond                           6.505674      195676
 fftext_mpi                              5.850368      272476
 m_bcast_d                               5.479749      136745
 kpar_sync_all                           5.479099           1
 densta                                  2.709333          11
 force_and_stress                        1.873902           1
 overl                                   1.818674      468168
 choleski                                1.682691          16
 setup_precond                           1.666641       76800
 overl1                                  1.621641      272476
 redis_proj                              1.476714      936672
 map_backward                            1.467107      544996
 hamiltmu                                1.146946       68119
 newband                                 0.840209       68279
 raccmu_                                 0.834915       68119
 phaser                                  0.644482         368
 fft3d_mpi                               0.628392      846930
 fftwav_w1                               0.620020      474569
 w1_projall                              0.539714       48919
 fftbas_mpi                              0.472047      846885
 pw_charge                               0.449845        6417
 rpro_isp                                0.431468         208
 orthch                                  0.346550           1
 elmin                                   0.297663           1
 rspher_all                              0.245608          14
 potlok                                  0.240976           2
 strkin                                  0.212251           1
 strnlr                                  0.205140           1
 forhar                                  0.193447           2
 stufak                                  0.158607           2
 set_charge                              0.157737           1
 setdij_                                 0.150941          29
 forloc                                  0.107880           1
 potxc                                   0.100286           1
 truncate_high_frequency_w1              0.078840      349276
 fornlr                                  0.068599           1
 depsum                                  0.029186           1
 strelo                                  0.022896           1
 strehar                                 0.019928           1
 chggra                                  0.016301           1
 soft_charge                             0.015141           1
 augmentation_charge                     0.012536           1
 pothar                                  0.011391           3
 inisym                                  0.010704           1
 m_max_i                                 0.007452          28
 rad_lda_xc                              0.007126          40
 setwdes                                 0.006127        6219
 rsp                                     0.003888           7
 rad_gga_xc                              0.002784          40
 bandgap                                 0.002193           1
 fewald                                  0.001529           7
 rad_pot                                 0.000972          40
 splval                                  0.000935        7429
 splcof                                  0.000576          88
 rcp                                     0.000290           7
 set_dd_paw                              0.000220           3
 proall                                  0.000207           1
 fordep                                  0.000187           1
 rad_proj                                0.000112          20
 posmap                                  0.000106           2
 fftbrc_mpi                              0.000044          45
 crpa_reader                             0.000031           1
 fermat_razor                            0.000023           1
 fft_gq                                  0.000022           1
 rad_aug_charge                          0.000018           5
 vectorpot                               0.000007           2
 rad_pot_weight                          0.000007          20
 rad_aug_proj                            0.000006          10
 set_rsgf_all                            0.000004           3
 redis_pw_over_bands                     0.000001           1
 set_dd_magatom                          0.000000           3
 rotate_active_occupied_orbital          0.000000           1
 ---------------------------------------------------------------
  summed up times     7195.912515878677     
 
 Accumulative profile
 ====================
 
             routine name                   CPU           calls
 ---------------------------------------------------------------
 total_time                           7195.912516           1
 elmin                                5322.373236           1
 eddav                                5318.951802          10
 wfinit                               1463.170858           1
 ggemm                                1337.201530       87319
 m_bcast_z                            1236.050082      160304
 fft3d_mpi                            1225.437768      846930
 fftbas_mpi                           1224.406655      846885
 fftbas_plan_mpi                      1224.337285      846930
 orth1                                1207.816716      204837
 hamiltmu                             1108.848238       68119
 fftwav_mpi                           1016.193217      574409
 fftwav_w1                             884.434347      474569
 dfftw_execute                         675.935661     2540790
 kinhamil                              447.810807      272476
 fftext_mpi                            441.012071      272476
 m_alltoallv_z                         405.664937      846933
 map_forward                           385.269917     1148864
 raccmu_                               368.870451       68119
 racc0mu                               366.413895       68119
 rpromu                                333.252669       73879
 vhamil                                291.020033      272476
 m_alltoall_d                          284.008052     2123596
 force_and_stress                      238.988759           1
 rpro_isp                              234.988651         208
 m_sumb_d                              234.939294     1407547
 w1_projall                            231.615139       48919
 newband                               184.708995       68279
 strnlr                                170.198402           1
 map_backward                          150.619680      544996
 crrexp_mul_work_add                   133.302976    33242072
 redis_pw                              132.551719      740980
 gemm                                  125.566490     8310518
 rpromu_gemm                           118.860770     9013238
 crrexp_mul_wave                       101.547983    36052952
 lincom                                 85.603229         176
 fornlr                                 57.152169           1
 map_gather                             45.462376      846933
 map_scatter                            42.547739      846933
 redis_proj                             41.355015      936672
 pdssyex_zheevx                         28.958427         160
 sphpro_fast                            27.349169           2
 eccp                                   25.886477       76800
 lapack                                 21.445817       68119
 w1_copy                                20.212403      817428
 proall                                 18.609058           1
 orthch                                 13.039652           1
 set_charge                              8.579413           1
 soft_charge                             8.270719           1
 apply_precond                           6.505674      195676
 kpar_sync_all                           5.537191           1
 m_bcast_d                               5.479749      136745
 densta                                  4.715651          11
 setup_precond                           3.209884       76800
 overl                                   1.818674      468168
 choleski                                1.682691          16
 overl1                                  1.621641      272476
 phaser                                  0.644482         368
 potlok                                  0.497536           2
 pw_charge                               0.449845        6417
 fftbrc_mpi                              0.402721          45
 rspher_all                              0.245608          14
 setdij_                                 0.233384          29
 strkin                                  0.212277           1
 potxc                                   0.211881           1
 forhar                                  0.194082           2
 stufak                                  0.158607           2
 fewald                                  0.155151           7
 forloc                                  0.107938           1
 truncate_high_frequency_w1              0.078840      349276
 chggra                                  0.051441           1
 fordep                                  0.046957           1
 augmentation_charge                     0.041415           1
 depsum                                  0.034786           1
 strelo                                  0.026787           1
 strehar                                 0.021246           1
 pothar                                  0.015437           3
 set_dd_paw                              0.011918           3
 rad_pot                                 0.010882          40
 inisym                                  0.010810           1
 m_max_i                                 0.007452          28
 rad_lda_xc                              0.007126          40
 setwdes                                 0.006127        6219
 rsp                                     0.003888           7
 rad_gga_xc                              0.002784          40
 bandgap                                 0.002193           1
 fft_gq                                  0.001443           1
 splval                                  0.000935        7429
 splcof                                  0.000576          88
 rcp                                     0.000290           7
 rad_proj                                0.000112          20
 posmap                                  0.000106           2
 crpa_reader                             0.000031           1
 fermat_razor                            0.000023           1
 rad_aug_charge                          0.000018           5
 vectorpot                               0.000007           2
 rad_pot_weight                          0.000007          20
 rad_aug_proj                            0.000006          10
 set_rsgf_all                            0.000004           3
 redis_pw_over_bands                     0.000001           1
 set_dd_magatom                          0.000000           3
 rotate_active_occupied_orbital          0.000000           1
 ---------------------------------------------------------------
 
Profiling took  15.827001  9.197914  0.009363  0.009276 seconds
Profiling took  11.215375 seconds
